49
acpm_t1_freq.log	Energy: -708850.7409908
C          0.01383       -0.40950        1.46679
N         -0.23181        0.79855        1.94293
C          0.24863        1.08035        3.20888
N          0.95541        0.17817        3.98308
C          1.16908       -1.01697        3.46120
C          0.72169       -1.39483        2.18093
C          0.00153        2.37487        3.74608
C         -0.72864        3.37751        2.99750
C         -0.94858        4.62806        3.51005
C         -0.48775        4.96967        4.81878
C          0.21966        3.99111        5.58312
C          0.46946        2.74851        5.06513
N         -0.72832        6.26520        5.35322
C         -1.51684        6.40130        6.50885
C         -1.72754        7.66803        7.10152
C         -1.22070        8.96345        6.47434
C         -0.43304        8.69635        5.19498
C         -0.17297        7.39017        4.71899
C         -2.14090        5.25664        7.05883
C         -2.88135        5.34735        8.22697
C         -3.04284        6.58437        8.85593
C         -2.48212        7.72167        8.27801
C          0.11346        9.77107        4.48590
C          0.91299        9.59072        3.35896
C          1.21484        8.29412        2.93528
C          0.69245        7.20500        3.61500
C         -2.44226        9.86584        6.14435
C         -0.29109        9.69096        7.48539
H         -0.36759       -0.62339        0.46723
H          1.72645       -1.72301        4.07857
H          0.91010       -2.38059        1.77155
H         -1.10644        3.10978        2.01821
H         -1.50712        5.36698        2.94217
H          0.58682        4.26212        6.56911
H          1.03376        2.01892        5.63317
H         -2.04964        4.30406        6.55555
H         -3.34510        4.45486        8.63570
H         -3.62107        6.66904        9.77087
H         -2.65003        8.68304        8.75243
H         -0.07833       10.78171        4.83117
H          1.31672       10.45225        2.83609
H          1.87038        8.12884        2.08580
H          0.95903        6.20369        3.30633
H         -2.11935       10.81254        5.70118
H         -3.11042        9.36482        5.43687
H         -3.01165       10.09928        7.04869
H          0.57899        9.07074        7.72273
H          0.06524       10.64056        7.07543
H         -0.82277        9.90832        8.41657
