49
acpm_s1_freq.out	Energy: -708853.4287206
C         -0.41966       -0.58610        1.72537
N         -0.65754        0.62163        2.20880
C          0.20674        1.08586        3.18464
N          1.28024        0.35514        3.66236
C          1.46608       -0.84535        3.13981
C          0.64426       -1.40267        2.14529
C         -0.02255        2.39040        3.72852
C         -1.11401        3.20903        3.28482
C         -1.33908        4.46455        3.80979
C         -0.48289        4.97187        4.80860
C          0.60272        4.19965        5.27007
C          0.82628        2.94432        4.74393
N         -0.72025        6.29092        5.36440
C         -1.54000        6.41532        6.47919
C         -1.79682        7.68766        7.05688
C         -1.19670        8.96926        6.49800
C         -0.32413        8.70142        5.28067
C         -0.12058        7.39255        4.76693
C         -2.11933        5.24468        7.03457
C         -2.93842        5.33342        8.14278
C         -3.19830        6.58389        8.72030
C         -2.62998        7.73471        8.17544
C          0.31129        9.75899        4.62854
C          1.12022        9.55670        3.51099
C          1.31427        8.26131        3.01194
C          0.70315        7.18793        3.62940
C         -2.35176        9.92828        6.08783
C         -0.32669        9.63831        7.60169
H         -1.10954       -0.93980        0.95567
H          2.31722       -1.41083        3.52622
H          0.81786       -2.38975        1.73299
H         -1.77031        2.81768        2.51609
H         -2.17230        5.06910        3.45977
H          1.25755        4.60089        6.03982
H          1.66131        2.35079        5.09781
H         -1.91015        4.28777        6.57832
H         -3.37690        4.43342        8.56052
H         -3.84093        6.66199        9.59128
H         -2.84483        8.69136        8.63878
H          0.17604       10.76974        4.99743
H          1.59725       10.40544        3.03165
H          1.94218        8.09556        2.14302
H          0.84343        6.18354        3.25637
H         -1.95291       10.87085        5.70316
H         -2.97433        9.47313        5.31173
H         -2.98540       10.15949        6.94838
H          0.49118        8.97678        7.90263
H          0.10234       10.57636        7.23911
H         -0.93103        9.86506        8.48415
