49
acpm_s0_freq.out	Energy: -708858.3408145
C         -0.06431       -0.64713        1.97306
N         -0.36212        0.57581        2.42025
C          0.43862        1.08676        3.37439
N          1.50669        0.46246        3.90556
C          1.78427       -0.75916        3.44223
C          1.01903       -1.37905        2.45592
C          0.11825        2.44673        3.88111
C         -0.98396        3.15514        3.37379
C         -1.28390        4.42811        3.84816
C         -0.48662        5.01447        4.83881
C          0.61083        4.31746        5.34826
C          0.91174        3.04322        4.87359
N         -0.77850        6.32577        5.34197
C         -1.78639        6.47872        6.32001
C         -1.96586        7.74478        6.92169
C         -0.92296        8.83096        6.64682
C         -0.50743        8.73789        5.17659
C         -0.35451        7.45435        4.60555
C         -2.60790        5.40207        6.69290
C         -3.63186        5.58571        7.61958
C         -3.85741        6.84329        8.17656
C         -3.02062        7.90442        7.82494
C         -0.16216        9.85078        4.40452
C          0.36804        9.72080        3.11927
C          0.56745        8.44642        2.59126
C          0.20423        7.31853        3.32397
C         -1.42250       10.23381        7.02773
C          0.33099        8.51215        7.51351
H         -0.71708       -1.05236        1.20186
H          2.64940       -1.25653        3.87726
H          1.25246       -2.37122        2.08638
H         -1.59831        2.69676        2.60749
H         -2.13490        4.97821        3.45816
H          1.22175        4.78273        6.11574
H          1.76265        2.49873        5.26637
H         -2.45510        4.42511        6.25056
H         -4.25929        4.74120        7.89200
H         -4.66244        6.99817        8.88916
H         -3.18760        8.87218        8.28455
H         -0.28821       10.84582        4.81644
H          0.63548       10.60568        2.54890
H          0.99463        8.32077        1.59989
H          0.34390        6.33354        2.89519
H         -0.64219       10.98151        6.85996
H         -2.30816       10.51900        6.45001
H         -1.67129       10.28048        8.09168
H          0.72819        7.51930        7.28073
H          1.11860        9.25063        7.32405
H          0.07068        8.53730        8.57804
