47
tn4t_s0_freq.log	Energy: -1047777.0173261
C          0.14549        0.01436        1.16155
C          0.14517        1.24809        1.80485
C          0.00985        1.28745        3.20161
C         -0.12070        0.05505        3.86116
C         -0.11151       -1.11621        3.11008
N          0.01933       -1.15971        1.78292
C          0.00551        2.56663        3.94274
C          0.78928        3.65119        3.51269
C          0.79713        4.85158        4.21422
C         -0.00276        5.00473        5.35493
C         -0.79861        3.93502        5.78717
C         -0.78261        2.72934        5.09501
N         -0.00702        6.22790        6.06367
C         -0.19948        7.49906        5.50443
C         -0.13999        8.46776        6.53804
C          0.10138        7.75272        7.77330
C          0.17591        6.37524        7.44582
C          0.27113        8.15929        9.10160
C          0.51904        7.19658       10.07699
C          0.60752        5.83587        9.73264
C          0.44160        5.40577        8.41677
C         -0.46176        7.85807        4.17948
C         -0.63992        9.21215        3.89880
C         -0.56657       10.18731        4.90956
C         -0.32173        9.82093        6.23074
C         -0.24430       -2.47322        3.77295
F          0.83258       -3.24479        3.52406
F         -1.32775       -3.13305        3.31676
F         -0.36742       -2.36337        5.11448
C          0.28538       -0.08405       -0.34485
F          0.40155        1.13540       -0.91611
F         -0.78422       -0.69211       -0.89531
F          1.37614       -0.79940       -0.68560
H          0.22616        2.15985        1.22659
H         -0.20475        0.00559        4.93950
H          1.43460        3.54370        2.64614
H          1.43625        5.66793        3.89518
H         -1.44117        4.06126        6.65196
H         -1.42552        1.92140        5.43069
H          0.21475        9.21262        9.36266
H          0.65101        7.49744       11.11224
H          0.81256        5.10065       10.50581
H          0.52340        4.35563        8.15829
H         -0.53193        7.11161        3.39578
H         -0.84258        9.51637        2.87569
H         -0.70784       11.23398        4.65617
H         -0.27713       10.57093        7.01584
