59
tn4t_designed.log	Energy: -1193541.5898153
C          0.01110        0.41110        1.17509
C         -0.14253        1.55356        1.97965
C          0.59246        1.57731        3.18515
C          1.32706        0.44655        3.55221
C          1.34812       -0.64317        2.68815
N          0.72819       -0.66155        1.50786
C          0.59888        2.80885        4.01715
C          1.18314        3.98423        3.48498
C          1.09055        5.17827        4.21399
C          0.45947        5.12756        5.47162
C         -0.08266        3.96601        6.04510
C         -0.00458        2.80416        5.28069
N          0.32681        6.31032        6.18271
C          0.56913        7.55436        5.65052
C         -0.01406        8.54876        6.46894
C         -0.70570        7.82519        7.54230
C         -0.48336        6.45241        7.28618
C         -1.53284        8.13052        8.63249
C         -2.10243        7.07578        9.35444
C         -1.88455        5.72130        9.01883
C         -1.05083        5.37772        7.95389
C          1.20647        7.74241        4.43503
C          1.32027        9.07365        4.03178
C          0.80617       10.11521        4.83525
C          0.13625        9.87524        6.04036
C          2.12371       -1.90074        3.01627
F          3.10704       -2.12075        2.11850
F          1.32409       -2.98697        3.00771
F          2.69767       -1.82591        4.23818
C         -0.66061        0.33494       -0.18736
F         -2.00767        0.21937       -0.07098
F         -0.22930       -0.70009       -0.91711
F         -0.42590        1.46521       -0.90374
H          1.88576        0.43215        4.48048
C          1.93719        3.90548        2.16838
C          1.67977        6.50114        3.68706
C         -0.70268        3.98105        7.45064
H         -0.43662        1.88071        5.65890
H         -1.74823        9.16001        8.90428
H         -2.75130        7.30459       10.19525
H         -2.37839        4.94313        9.59580
H          1.80063        9.31706        3.08712
H          0.91959       11.13981        4.49223
H         -0.27358       10.70202        6.61352
C          1.08193        3.99718        0.86130
H          2.70239        4.68568        2.14504
H          2.48864        2.96039        2.15916
C         -1.08079        2.69598        1.64623
H          0.00712        3.51079        8.14832
H         -1.59341        3.34099        7.46187
H          1.43903        6.60649        2.62252
H          2.77810        6.44280        3.73466
C         -0.44285        3.98522        1.03211
H         -1.58031        2.96501        2.58193
H         -1.86298        2.33276        0.97957
H          1.36736        3.17629        0.19365
H          1.34035        4.92279        0.33369
H         -0.73921        4.84233        1.64711
H         -0.88294        4.14454        0.04199
